<?xml version="1.0"?>
<VTKFile type="UnstructuredGrid"  version="0.1"  >
<UnstructuredGrid>
<Piece  NumberOfPoints="1111" NumberOfCells="2000">
<Points>
<DataArray  type="Float64"  NumberOfComponents="3"  format="ascii">0 0 0  0.1 0 0  0.2 0 0  0.3 0 0  0.4 0 0  0.5 0 0  0.6 0 0  0.7 0 0  0.8 0 0  0.9 0 0  1 0 0  1.1 0 0  1.2 0 0  1.3 0 0  1.4 0 0  1.5 0 0  1.6 0 0  1.7 0 0  1.8 0 0  1.9 0 0  2 0 0  2.1 0 0  2.2 0 0  2.3 0 0  2.4 0 0  2.5 0 0  2.6 0 0  2.7 0 0  2.8 0 0  2.9 0 0  3 0 0  3.1 0 0  3.2 0 0  3.3 0 0  3.4 0 0  3.5 0 0  3.6 0 0  3.7 0 0  3.8 0 0  3.9 0 0  4 0 0  4.1 0 0  4.2 0 0  4.3 0 0  4.4 0 0  4.5 0 0  4.6 0 0  4.7 0 0  4.8 0 0  4.9 0 0  5 0 0  5.1 0 0  5.2 0 0  5.3 0 0  5.4 0 0  5.5 0 0  5.6 0 0  5.7 0 0  5.8 0 0  5.9 0 0  6 0 0  6.1 0 0  6.2 0 0  6.3 0 0  6.4 0 0  6.5 0 0  6.6 0 0  6.7 0 0  6.8 0 0  6.9 0 0  7 0 0  7.1 0 0  7.2 0 0  7.3 0 0  7.4 0 0  7.5 0 0  7.6 0 0  7.7 0 0  7.8 0 0  7.9 0 0  8 0 0  8.1 0 0  8.199999999999999 0 0  8.300000000000001 0 0  8.4 0 0  8.5 0 0  8.6 0 0  8.699999999999999 0 0  8.800000000000001 0 0  8.9 0 0  9 0 0  9.1 0 0  9.199999999999999 0 0  9.300000000000001 0 0  9.4 0 0  9.5 0 0  9.6 0 0  9.699999999999999 0 0  9.800000000000001 0 0  9.9 0 0  10 0 0  0 0.1 0  0.1 0.1 0  0.2 0.1 0  0.3 0.1 0  0.4 0.1 0  0.5 0.1 0  0.6 0.1 0  0.7 0.1 0  0.8 0.1 0  0.9 0.1 0  1 0.1 0  1.1 0.1 0  1.2 0.1 0  1.3 0.1 0  1.4 0.1 0  1.5 0.1 0  1.6 0.1 0  1.7 0.1 0  1.8 0.1 0  1.9 0.1 0  2 0.1 0  2.1 0.1 0  2.2 0.1 0  2.3 0.1 0  2.4 0.1 0  2.5 0.1 0  2.6 0.1 0  2.7 0.1 0  2.8 0.1 0  2.9 0.1 0  3 0.1 0  3.1 0.1 0  3.2 0.1 0  3.3 0.1 0  3.4 0.1 0  3.5 0.1 0  3.6 0.1 0  3.7 0.1 0  3.8 0.1 0  3.9 0.1 0  4 0.1 0  4.1 0.1 0  4.2 0.1 0  4.3 0.1 0  4.4 0.1 0  4.5 0.1 0  4.6 0.1 0  4.7 0.1 0  4.8 0.1 0  4.9 0.1 0  5 0.1 0  5.1 0.1 0  5.2 0.1 0  5.3 0.1 0  5.4 0.1 0  5.5 0.1 0  5.6 0.1 0  5.7 0.1 0  5.8 0.1 0  5.9 0.1 0  6 0.1 0  6.1 0.1 0  6.2 0.1 0  6.3 0.1 0  6.4 0.1 0  6.5 0.1 0  6.6 0.1 0  6.7 0.1 0  6.8 0.1 0  6.9 0.1 0  7 0.1 0  7.1 0.1 0  7.2 0.1 0  7.3 0.1 0  7.4 0.1 0  7.5 0.1 0  7.6 0.1 0  7.7 0.1 0  7.8 0.1 0  7.9 0.1 0  8 0.1 0  8.1 0.1 0  8.199999999999999 0.1 0  8.300000000000001 0.1 0  8.4 0.1 0  8.5 0.1 0  8.6 0.1 0  8.699999999999999 0.1 0  8.800000000000001 0.1 0  8.9 0.1 0  9 0.1 0  9.1 0.1 0  9.199999999999999 0.1 0  9.300000000000001 0.1 0  9.4 0.1 0  9.5 0.1 0  9.6 0.1 0  9.699999999999999 0.1 0  9.800000000000001 0.1 0  9.9 0.1 0  10 0.1 0  0 0.2 0  0.1 0.2 0  0.2 0.2 0  0.3 0.2 0  0.4 0.2 0  0.5 0.2 0  0.6 0.2 0  0.7 0.2 0  0.8 0.2 0  0.9 0.2 0  1 0.2 0  1.1 0.2 0  1.2 0.2 0  1.3 0.2 0  1.4 0.2 0  1.5 0.2 0  1.6 0.2 0  1.7 0.2 0  1.8 0.2 0  1.9 0.2 0  2 0.2 0  2.1 0.2 0  2.2 0.2 0  2.3 0.2 0  2.4 0.2 0  2.5 0.2 0  2.6 0.2 0  2.7 0.2 0  2.8 0.2 0  2.9 0.2 0  3 0.2 0  3.1 0.2 0  3.2 0.2 0  3.3 0.2 0  3.4 0.2 0  3.5 0.2 0  3.6 0.2 0  3.7 0.2 0  3.8 0.2 0  3.9 0.2 0  4 0.2 0  4.1 0.2 0  4.2 0.2 0  4.3 0.2 0  4.4 0.2 0  4.5 0.2 0  4.6 0.2 0  4.7 0.2 0  4.8 0.2 0  4.9 0.2 0  5 0.2 0  5.1 0.2 0  5.2 0.2 0  5.3 0.2 0  5.4 0.2 0  5.5 0.2 0  5.6 0.2 0  5.7 0.2 0  5.8 0.2 0  5.9 0.2 0  6 0.2 0  6.1 0.2 0  6.2 0.2 0  6.3 0.2 0  6.4 0.2 0  6.5 0.2 0  6.6 0.2 0  6.7 0.2 0  6.8 0.2 0  6.9 0.2 0  7 0.2 0  7.1 0.2 0  7.2 0.2 0  7.3 0.2 0  7.4 0.2 0  7.5 0.2 0  7.6 0.2 0  7.7 0.2 0  7.8 0.2 0  7.9 0.2 0  8 0.2 0  8.1 0.2 0  8.199999999999999 0.2 0  8.300000000000001 0.2 0  8.4 0.2 0  8.5 0.2 0  8.6 0.2 0  8.699999999999999 0.2 0  8.800000000000001 0.2 0  8.9 0.2 0  9 0.2 0  9.1 0.2 0  9.199999999999999 0.2 0  9.300000000000001 0.2 0  9.4 0.2 0  9.5 0.2 0  9.6 0.2 0  9.699999999999999 0.2 0  9.800000000000001 0.2 0  9.9 0.2 0  10 0.2 0  0 0.3 0  0.1 0.3 0  0.2 0.3 0  0.3 0.3 0  0.4 0.3 0  0.5 0.3 0  0.6 0.3 0  0.7 0.3 0  0.8 0.3 0  0.9 0.3 0  1 0.3 0  1.1 0.3 0  1.2 0.3 0  1.3 0.3 0  1.4 0.3 0  1.5 0.3 0  1.6 0.3 0  1.7 0.3 0  1.8 0.3 0  1.9 0.3 0  2 0.3 0  2.1 0.3 0  2.2 0.3 0  2.3 0.3 0  2.4 0.3 0  2.5 0.3 0  2.6 0.3 0  2.7 0.3 0  2.8 0.3 0  2.9 0.3 0  3 0.3 0  3.1 0.3 0  3.2 0.3 0  3.3 0.3 0  3.4 0.3 0  3.5 0.3 0  3.6 0.3 0  3.7 0.3 0  3.8 0.3 0  3.9 0.3 0  4 0.3 0  4.1 0.3 0  4.2 0.3 0  4.3 0.3 0  4.4 0.3 0  4.5 0.3 0  4.6 0.3 0  4.7 0.3 0  4.8 0.3 0  4.9 0.3 0  5 0.3 0  5.1 0.3 0  5.2 0.3 0  5.3 0.3 0  5.4 0.3 0  5.5 0.3 0  5.6 0.3 0  5.7 0.3 0  5.8 0.3 0  5.9 0.3 0  6 0.3 0  6.1 0.3 0  6.2 0.3 0  6.3 0.3 0  6.4 0.3 0  6.5 0.3 0  6.6 0.3 0  6.7 0.3 0  6.8 0.3 0  6.9 0.3 0  7 0.3 0  7.1 0.3 0  7.2 0.3 0  7.3 0.3 0  7.4 0.3 0  7.5 0.3 0  7.6 0.3 0  7.7 0.3 0  7.8 0.3 0  7.9 0.3 0  8 0.3 0  8.1 0.3 0  8.199999999999999 0.3 0  8.300000000000001 0.3 0  8.4 0.3 0  8.5 0.3 0  8.6 0.3 0  8.699999999999999 0.3 0  8.800000000000001 0.3 0  8.9 0.3 0  9 0.3 0  9.1 0.3 0  9.199999999999999 0.3 0  9.300000000000001 0.3 0  9.4 0.3 0  9.5 0.3 0  9.6 0.3 0  9.699999999999999 0.3 0  9.800000000000001 0.3 0  9.9 0.3 0  10 0.3 0  0 0.4 0  0.1 0.4 0  0.2 0.4 0  0.3 0.4 0  0.4 0.4 0  0.5 0.4 0  0.6 0.4 0  0.7 0.4 0  0.8 0.4 0  0.9 0.4 0  1 0.4 0  1.1 0.4 0  1.2 0.4 0  1.3 0.4 0  1.4 0.4 0  1.5 0.4 0  1.6 0.4 0  1.7 0.4 0  1.8 0.4 0  1.9 0.4 0  2 0.4 0  2.1 0.4 0  2.2 0.4 0  2.3 0.4 0  2.4 0.4 0  2.5 0.4 0  2.6 0.4 0  2.7 0.4 0  2.8 0.4 0  2.9 0.4 0  3 0.4 0  3.1 0.4 0  3.2 0.4 0  3.3 0.4 0  3.4 0.4 0  3.5 0.4 0  3.6 0.4 0  3.7 0.4 0  3.8 0.4 0  3.9 0.4 0  4 0.4 0  4.1 0.4 0  4.2 0.4 0  4.3 0.4 0  4.4 0.4 0  4.5 0.4 0  4.6 0.4 0  4.7 0.4 0  4.8 0.4 0  4.9 0.4 0  5 0.4 0  5.1 0.4 0  5.2 0.4 0  5.3 0.4 0  5.4 0.4 0  5.5 0.4 0  5.6 0.4 0  5.7 0.4 0  5.8 0.4 0  5.9 0.4 0  6 0.4 0  6.1 0.4 0  6.2 0.4 0  6.3 0.4 0  6.4 0.4 0  6.5 0.4 0  6.6 0.4 0  6.7 0.4 0  6.8 0.4 0  6.9 0.4 0  7 0.4 0  7.1 0.4 0  7.2 0.4 0  7.3 0.4 0  7.4 0.4 0  7.5 0.4 0  7.6 0.4 0  7.7 0.4 0  7.8 0.4 0  7.9 0.4 0  8 0.4 0  8.1 0.4 0  8.199999999999999 0.4 0  8.300000000000001 0.4 0  8.4 0.4 0  8.5 0.4 0  8.6 0.4 0  8.699999999999999 0.4 0  8.800000000000001 0.4 0  8.9 0.4 0  9 0.4 0  9.1 0.4 0  9.199999999999999 0.4 0  9.300000000000001 0.4 0  9.4 0.4 0  9.5 0.4 0  9.6 0.4 0  9.699999999999999 0.4 0  9.800000000000001 0.4 0  9.9 0.4 0  10 0.4 0  0 0.5 0  0.1 0.5 0  0.2 0.5 0  0.3 0.5 0  0.4 0.5 0  0.5 0.5 0  0.6 0.5 0  0.7 0.5 0  0.8 0.5 0  0.9 0.5 0  1 0.5 0  1.1 0.5 0  1.2 0.5 0  1.3 0.5 0  1.4 0.5 0  1.5 0.5 0  1.6 0.5 0  1.7 0.5 0  1.8 0.5 0  1.9 0.5 0  2 0.5 0  2.1 0.5 0  2.2 0.5 0  2.3 0.5 0  2.4 0.5 0  2.5 0.5 0  2.6 0.5 0  2.7 0.5 0  2.8 0.5 0  2.9 0.5 0  3 0.5 0  3.1 0.5 0  3.2 0.5 0  3.3 0.5 0  3.4 0.5 0  3.5 0.5 0  3.6 0.5 0  3.7 0.5 0  3.8 0.5 0  3.9 0.5 0  4 0.5 0  4.1 0.5 0  4.2 0.5 0  4.3 0.5 0  4.4 0.5 0  4.5 0.5 0  4.6 0.5 0  4.7 0.5 0  4.8 0.5 0  4.9 0.5 0  5 0.5 0  5.1 0.5 0  5.2 0.5 0  5.3 0.5 0  5.4 0.5 0  5.5 0.5 0  5.6 0.5 0  5.7 0.5 0  5.8 0.5 0  5.9 0.5 0  6 0.5 0  6.1 0.5 0  6.2 0.5 0  6.3 0.5 0  6.4 0.5 0  6.5 0.5 0  6.6 0.5 0  6.7 0.5 0  6.8 0.5 0  6.9 0.5 0  7 0.5 0  7.1 0.5 0  7.2 0.5 0  7.3 0.5 0  7.4 0.5 0  7.5 0.5 0  7.6 0.5 0  7.7 0.5 0  7.8 0.5 0  7.9 0.5 0  8 0.5 0  8.1 0.5 0  8.199999999999999 0.5 0  8.300000000000001 0.5 0  8.4 0.5 0  8.5 0.5 0  8.6 0.5 0  8.699999999999999 0.5 0  8.800000000000001 0.5 0  8.9 0.5 0  9 0.5 0  9.1 0.5 0  9.199999999999999 0.5 0  9.300000000000001 0.5 0  9.4 0.5 0  9.5 0.5 0  9.6 0.5 0  9.699999999999999 0.5 0  9.800000000000001 0.5 0  9.9 0.5 0  10 0.5 0  0 0.6 0  0.1 0.6 0  0.2 0.6 0  0.3 0.6 0  0.4 0.6 0  0.5 0.6 0  0.6 0.6 0  0.7 0.6 0  0.8 0.6 0  0.9 0.6 0  1 0.6 0  1.1 0.6 0  1.2 0.6 0  1.3 0.6 0  1.4 0.6 0  1.5 0.6 0  1.6 0.6 0  1.7 0.6 0  1.8 0.6 0  1.9 0.6 0  2 0.6 0  2.1 0.6 0  2.2 0.6 0  2.3 0.6 0  2.4 0.6 0  2.5 0.6 0  2.6 0.6 0  2.7 0.6 0  2.8 0.6 0  2.9 0.6 0  3 0.6 0  3.1 0.6 0  3.2 0.6 0  3.3 0.6 0  3.4 0.6 0  3.5 0.6 0  3.6 0.6 0  3.7 0.6 0  3.8 0.6 0  3.9 0.6 0  4 0.6 0  4.1 0.6 0  4.2 0.6 0  4.3 0.6 0  4.4 0.6 0  4.5 0.6 0  4.6 0.6 0  4.7 0.6 0  4.8 0.6 0  4.9 0.6 0  5 0.6 0  5.1 0.6 0  5.2 0.6 0  5.3 0.6 0  5.4 0.6 0  5.5 0.6 0  5.6 0.6 0  5.7 0.6 0  5.8 0.6 0  5.9 0.6 0  6 0.6 0  6.1 0.6 0  6.2 0.6 0  6.3 0.6 0  6.4 0.6 0  6.5 0.6 0  6.6 0.6 0  6.7 0.6 0  6.8 0.6 0  6.9 0.6 0  7 0.6 0  7.1 0.6 0  7.2 0.6 0  7.3 0.6 0  7.4 0.6 0  7.5 0.6 0  7.6 0.6 0  7.7 0.6 0  7.8 0.6 0  7.9 0.6 0  8 0.6 0  8.1 0.6 0  8.199999999999999 0.6 0  8.300000000000001 0.6 0  8.4 0.6 0  8.5 0.6 0  8.6 0.6 0  8.699999999999999 0.6 0  8.800000000000001 0.6 0  8.9 0.6 0  9 0.6 0  9.1 0.6 0  9.199999999999999 0.6 0  9.300000000000001 0.6 0  9.4 0.6 0  9.5 0.6 0  9.6 0.6 0  9.699999999999999 0.6 0  9.800000000000001 0.6 0  9.9 0.6 0  10 0.6 0  0 0.7 0  0.1 0.7 0  0.2 0.7 0  0.3 0.7 0  0.4 0.7 0  0.5 0.7 0  0.6 0.7 0  0.7 0.7 0  0.8 0.7 0  0.9 0.7 0  1 0.7 0  1.1 0.7 0  1.2 0.7 0  1.3 0.7 0  1.4 0.7 0  1.5 0.7 0  1.6 0.7 0  1.7 0.7 0  1.8 0.7 0  1.9 0.7 0  2 0.7 0  2.1 0.7 0  2.2 0.7 0  2.3 0.7 0  2.4 0.7 0  2.5 0.7 0  2.6 0.7 0  2.7 0.7 0  2.8 0.7 0  2.9 0.7 0  3 0.7 0  3.1 0.7 0  3.2 0.7 0  3.3 0.7 0  3.4 0.7 0  3.5 0.7 0  3.6 0.7 0  3.7 0.7 0  3.8 0.7 0  3.9 0.7 0  4 0.7 0  4.1 0.7 0  4.2 0.7 0  4.3 0.7 0  4.4 0.7 0  4.5 0.7 0  4.6 0.7 0  4.7 0.7 0  4.8 0.7 0  4.9 0.7 0  5 0.7 0  5.1 0.7 0  5.2 0.7 0  5.3 0.7 0  5.4 0.7 0  5.5 0.7 0  5.6 0.7 0  5.7 0.7 0  5.8 0.7 0  5.9 0.7 0  6 0.7 0  6.1 0.7 0  6.2 0.7 0  6.3 0.7 0  6.4 0.7 0  6.5 0.7 0  6.6 0.7 0  6.7 0.7 0  6.8 0.7 0  6.9 0.7 0  7 0.7 0  7.1 0.7 0  7.2 0.7 0  7.3 0.7 0  7.4 0.7 0  7.5 0.7 0  7.6 0.7 0  7.7 0.7 0  7.8 0.7 0  7.9 0.7 0  8 0.7 0  8.1 0.7 0  8.199999999999999 0.7 0  8.300000000000001 0.7 0  8.4 0.7 0  8.5 0.7 0  8.6 0.7 0  8.699999999999999 0.7 0  8.800000000000001 0.7 0  8.9 0.7 0  9 0.7 0  9.1 0.7 0  9.199999999999999 0.7 0  9.300000000000001 0.7 0  9.4 0.7 0  9.5 0.7 0  9.6 0.7 0  9.699999999999999 0.7 0  9.800000000000001 0.7 0  9.9 0.7 0  10 0.7 0  0 0.8 0  0.1 0.8 0  0.2 0.8 0  0.3 0.8 0  0.4 0.8 0  0.5 0.8 0  0.6 0.8 0  0.7 0.8 0  0.8 0.8 0  0.9 0.8 0  1 0.8 0  1.1 0.8 0  1.2 0.8 0  1.3 0.8 0  1.4 0.8 0  1.5 0.8 0  1.6 0.8 0  1.7 0.8 0  1.8 0.8 0  1.9 0.8 0  2 0.8 0  2.1 0.8 0  2.2 0.8 0  2.3 0.8 0  2.4 0.8 0  2.5 0.8 0  2.6 0.8 0  2.7 0.8 0  2.8 0.8 0  2.9 0.8 0  3 0.8 0  3.1 0.8 0  3.2 0.8 0  3.3 0.8 0  
[...]
<PointData  Scalars="u"> 
<DataArray  type="Float64"  Name="u"  format="ascii">7.8062556418956290e-16  2.0000000004579612e+00  4.0000000001232854e+00  6.0000000003062395e+00  8.0000000000154241e+00  1.0000000000363098e+01  1.2000000000282682e+01  1.4000000000397598e+01  1.6000000000157392e+01  1.8000000000231044e+01  2.0000000000263494e+01  2.2000000000525816e+01  2.4000000000534346e+01  2.6000000000451561e+01  2.8000000000196902e+01  3.0000000000140023e+01  3.2000000000240433e+01  3.4000000000503846e+01  3.6000000000646693e+01  3.8000000000684089e+01  4.0000000000632646e+01  4.2000000000707452e+01  4.4000000000847507e+01  4.6000000000989715e+01  4.8000000000941405e+01  5.0000000000797463e+01  5.2000000000678092e+01  5.4000000000769568e+01  5.6000000000988578e+01  5.8000000001163457e+01  6.0000000001129166e+01  6.2000000000952951e+01  6.4000000000799730e+01  6.6000000000817181e+01  6.8000000000945462e+01  7.0000000001041059e+01  7.2000000001018407e+01  7.4000000000983803e+01  7.6000000001058979e+01  7.8000000001293884e+01  8.0000000001515787e+01  8.2000000001579565e+01  8.4000000001429640e+01  8.6000000001275353e+01  8.8000000001254861e+01  9.0000000001443681e+01  9.2000000001632060e+01  9.4000000001695824e+01  9.6000000001597613e+01  9.8000000001496858e+01  1.0000000000150237e+02  1.0200000000160773e+02  1.0400000000164019e+02  1.0600000000154441e+02  1.0800000000138702e+02  1.1000000000138301e+02  1.1200000000157712e+02  1.1400000000187723e+02  1.1600000000204375e+02  1.1800000000202225e+02  1.2000000000187875e+02  1.2200000000184407e+02  1.2400000000194275e+02  1.2600000000212127e+02  1.2800000000217108e+02  1.3000000000212319e+02  1.3200000000205179e+02  1.3400000000211548e+02  1.3600000000227354e+02  1.3800000000237569e+02  1.4000000000227229e+02  1.4200000000205637e+02  1.4400000000189178e+02  1.4600000000195354e+02  1.4800000000217540e+02  1.5000000000239649e+02  1.5200000000243668e+02  1.5400000000239024e+02  1.5600000000237267e+02  1.5800000000250057e+02  1.6000000000265027e+02  1.6200000000271456e+02  1.6400000000260943e+02  1.6600000000251919e+02  1.6800000000256136e+02  1.7000000000278735e+02  1.7200000000298985e+02  1.7400000000302848e+02  1.7600000000284001e+02  1.7800000000263481e+02  1.8000000000256730e+02  1.8200000000267264e+02  1.8400000000278030e+02  1.8600000000281318e+02  1.8800000000282353e+02  1.9000000000280014e+02  1.9200000000287631e+02  1.9400000000313113e+02  1.9600000000320912e+02  1.9800000000306551e+02  2.0000000000301441e+02  9.1072982488782333e-16  2.0000000003592060e+00  4.0000000001765441e+00  6.0000000002689280e+00  8.0000000001274731e+00  1.0000000000297975e+01  1.2000000000273715e+01  1.4000000000339316e+01  1.6000000000225509e+01  1.8000000000263604e+01  2.0000000000300989e+01  2.2000000000451365e+01  2.4000000000472742e+01  2.6000000000415792e+01  2.8000000000267114e+01  3.0000000000217089e+01  3.2000000000287898e+01  3.4000000000463110e+01  3.6000000000599229e+01  3.8000000000662617e+01  4.0000000000674476e+01  4.2000000000732342e+01  4.4000000000832294e+01  4.6000000000919115e+01  4.8000000000906859e+01  5.0000000000821871e+01  5.2000000000760970e+01  5.4000000000812399e+01  5.6000000000961457e+01  5.8000000001077268e+01  6.0000000001079670e+01  6.2000000000967482e+01  6.4000000000869576e+01  6.6000000000853987e+01  6.8000000000933554e+01  7.0000000000998554e+01  7.2000000001024603e+01  7.4000000001030230e+01  7.6000000001115339e+01  7.8000000001276945e+01  8.0000000001445699e+01  8.2000000001501533e+01  8.4000000001434685e+01  8.6000000001336574e+01  8.8000000001329767e+01  9.0000000001439943e+01  9.2000000001579807e+01  9.4000000001634533e+01  9.6000000001602970e+01  9.8000000001535582e+01  1.0000000000153481e+02  1.0200000000157301e+02  1.0400000000159572e+02  1.0600000000153248e+02  1.0800000000145721e+02  1.1000000000145974e+02  1.1200000000161012e+02  1.1400000000181599e+02  1.1600000000196812e+02  1.1800000000198226e+02  1.2000000000192352e+02  1.2200000000189631e+02  1.2400000000196424e+02  1.2600000000207245e+02  1.2800000000213467e+02  1.3000000000212304e+02  1.3200000000210588e+02  1.3400000000214109e+02  1.3600000000224182e+02  1.3800000000229349e+02  1.4000000000223639e+02  1.4200000000208857e+02  1.4400000000198654e+02  1.4600000000201234e+02  1.4800000000216627e+02  1.5000000000232913e+02  1.5200000000240468e+02  1.5400000000240786e+02  1.5600000000242190e+02  1.5800000000250472e+02  1.6000000000260772e+02  1.6200000000266056e+02  1.6400000000262017e+02  1.6600000000258089e+02  1.6800000000262185e+02  1.7000000000277169e+02  1.7200000000291143e+02  1.7400000000294847e+02  1.7600000000283603e+02  1.7800000000269725e+02  1.8000000000262750e+02  1.8200000000267804e+02  1.8400000000274798e+02  1.8600000000279456e+02  1.8800000000282634e+02  1.9000000000284842e+02  1.9200000000291473e+02  1.9400000000306463e+02  1.9600000000314097e+02  1.9800000000308214e+02  2.0000000000303658e+02  1.0842021724855054e-16  2.0000000000851452e+00  4.0000000002392673e+00  6.0000000001833165e+00  8.0000000003408047e+00  1.0000000000225684e+01  1.2000000000244883e+01  1.4000000000212262e+01  1.6000000000330132e+01  1.8000000000346862e+01  2.0000000000392831e+01  2.2000000000325944e+01  2.4000000000322867e+01  2.6000000000310639e+01  2.8000000000385700e+01  3.0000000000402121e+01  3.2000000000434000e+01  3.4000000000417018e+01  3.6000000000494325e+01  3.8000000000584379e+01  4.0000000000734353e+01  4.2000000000789065e+01  4.4000000000819725e+01  4.6000000000778080e+01  4.8000000000808811e+01  5.0000000000846157e+01  5.2000000000931642e+01  5.4000000000937071e+01  5.6000000000936346e+01  5.8000000000897003e+01  6.0000000000936076e+01  6.2000000000959922e+01  6.4000000001009596e+01  6.6000000000966921e+01  6.8000000000946613e+01  7.0000000000919414e+01  7.2000000001019643e+01  7.4000000001113136e+01  7.6000000001244587e+01  7.8000000001267139e+01  8.0000000001308422e+01  8.2000000001308649e+01  8.4000000001403492e+01  8.6000000001447276e+01  8.8000000001511225e+01  9.0000000001473694e+01  9.2000000001485347e+01  9.4000000001484835e+01  9.6000000001573014e+01  9.8000000001598465e+01  1.0000000000161924e+02  1.0200000000152954e+02  1.0400000000150661e+02  1.0600000000149051e+02  1.0800000000158977e+02  1.1000000000164043e+02  1.1200000000172088e+02  1.1400000000171509e+02  1.1600000000179489e+02  1.1800000000185226e+02  1.2000000000198376e+02  1.2200000000201145e+02  1.2400000000204376e+02  1.2600000000199474e+02  1.2800000000204668e+02  1.3000000000209326e+02  1.3200000000220726e+02  1.3400000000220817e+02  1.3600000000220007e+02  1.3800000000211850e+02  1.4000000000212935e+02  1.4200000000212967e+02  1.4400000000219023e+02  1.4600000000217989e+02  1.4800000000219393e+02  1.5000000000219745e+02  1.5200000000230688e+02  1.5400000000240891e+02  1.5600000000252172e+02  1.5800000000253334e+02  1.6000000000254082e+02  1.6200000000253434e+02  1.6400000000261514e+02  1.6600000000269546e+02  1.6800000000276921e+02  1.7000000000276822e+02  1.7200000000275580e+02  1.7400000000274761e+02  1.7600000000278010e+02  1.7800000000280673e+02  1.8000000000278604e+02  1.8200000000273178e+02  1.8400000000269796e+02  1.8600000000274613e+02  1.8800000000284004e+02  1.9000000000291496e+02  1.9200000000300329e+02  1.9400000000298945e+02  1.9600000000295611e+02  1.9800000000306710e+02  2.0000000000311917e+02  -2.8189256484623105e-16  1.9999999998618978e+00  4.0000000001389227e+00  6.0000000001857456e+00  8.0000000003979448e+00  1.0000000000249509e+01  1.2000000000203261e+01  1.4000000000168106e+01  1.6000000000359137e+01  1.8000000000428795e+01  2.0000000000431641e+01  2.2000000000252872e+01  2.4000000000186240e+01  2.6000000000232689e+01  2.8000000000460407e+01  3.0000000000577771e+01  3.2000000000589658e+01  3.4000000000441219e+01  3.6000000000426326e+01  3.8000000000507796e+01  4.0000000000730083e+01  4.2000000000804114e+01  4.4000000000793051e+01  4.6000000000677588e+01  4.8000000000727312e+01  5.0000000000860837e+01  5.2000000001054957e+01  5.4000000001046033e+01  5.6000000000931429e+01  5.8000000000757460e+01  6.0000000000795396e+01  6.2000000000917936e+01  6.4000000001103601e+01  6.6000000001080622e+01  6.8000000001012623e+01  7.0000000000906965e+01  7.2000000001035644e+01  7.4000000001172026e+01  7.6000000001331770e+01  7.8000000001252516e+01  8.0000000001193584e+01  8.2000000001140236e+01  8.4000000001347146e+01  8.6000000001517108e+01  8.8000000001658051e+01  9.0000000001532612e+01  9.2000000001431957e+01  9.4000000001358345e+01  9.6000000001511012e+01  9.8000000001605031e+01  1.0000000000167097e+02  1.0200000000151563e+02  1.0400000000147162e+02  1.0600000000148248e+02  1.0800000000171087e+02  1.1000000000180106e+02  1.1200000000183550e+02  1.1400000000165645e+02  1.1600000000165056e+02  1.1800000000171234e+02  1.2000000000198628e+02  1.2200000000208458e+02  1.2400000000212266e+02  1.2600000000196927e+02  1.2800000000199046e+02  1.3000000000205446e+02  1.3200000000224856e+02  1.3400000000223423e+02  1.3600000000216301e+02  1.3800000000198170e+02  1.4000000000204005e+02  1.4200000000215911e+02  1.4400000000237065e+02  1.4600000000235474e+02  1.4800000000227126e+02  1.5000000000212776e+02  1.5200000000221939e+02  1.5400000000237014e+02  1.5600000000256546e+02  1.5800000000254741e+02  1.6000000000250338e+02  1.6200000000245066e+02  1.6400000000260812e+02  1.6600000000277123e+02  1.6800000000287764e+02  1.7000000000276597e+02  1.7200000000262662e+02  1.7400000000256301e+02  1.7600000000269577e+02  1.7800000000286391e+02  1.8000000000292857e+02  1.8200000000282685e+02  1.8400000000271606e+02  1.8600000000272649e+02  1.8800000000286005e+02  1.9000000000295339e+02  1.9200000000302782e+02  1.9400000000295427e+02  1.9600000000283350e+02  1.9800000000300585e+02  2.0000000000317968e+02  1.3371826793987882e-16  1.9999999998533233e+00  3.9999999999405982e+00  6.0000000002011475e+00  8.0000000002808456e+00  1.0000000000282281e+01  1.2000000000217726e+01  1.4000000000248850e+01  1.6000000000329941e+01  1.8000000000422244e+01  2.0000000000371340e+01  2.2000000000247077e+01  2.4000000000167535e+01  2.6000000000258719e+01  2.8000000000472085e+01  3.0000000000639400e+01  3.2000000000660087e+01  3.4000000000541576e+01  3.6000000000469264e+01  3.8000000000501629e+01  4.0000000000644377e+01  4.2000000000721911e+01  4.4000000000724818e+01  4.6000000000672458e+01  4.8000000000734182e+01  5.0000000000878956e+01  5.2000000001048107e+01  5.4000000001045159e+01  5.6000000000923436e+01  5.8000000000749559e+01  6.0000000000757232e+01  6.2000000000876156e+01  6.4000000001077936e+01  6.6000000001117783e+01  6.8000000001103245e+01  7.0000000001022627e+01  7.2000000001107665e+01  7.4000000001190372e+01  7.6000000001295092e+01  7.8000000001206999e+01  8.0000000001147299e+01  8.2000000001110621e+01  8.4000000001310127e+01  8.6000000001497312e+01  8.8000000001654385e+01  9.0000000001561659e+01  9.2000000001456641e+01  9.4000000001353072e+01  9.6000000001455561e+01  9.8000000001529756e+01  1.0000000000161953e+02  1.0200000000152997e+02  1.0400000000154199e+02  1.0600000000157128e+02  1.0800000000178403e+02  1.1000000000185179e+02  1.1200000000186515e+02  1.1400000000167060e+02  1.1600000000163305e+02  1.1800000000166014e+02  1.2000000000191633e+02  1.2200000000203897e+02  1.2400000000212606e+02  1.2600000000201290e+02  1.2800000000202775e+02  1.3000000000204568e+02  1.3200000000218975e+02  1.3400000000215636e+02  1.3600000000211270e+02  1.3800000000196493e+02  1.4000000000205409e+02  1.4200000000219038e+02  1.4400000000242591e+02  1.4600000000242994e+02  1.4800000000236358e+02  1.5000000000219231e+02  1.5200000000222761e+02  1.5400000000231373e+02  1.5600000000249375e+02  1.5800000000249807e+02  1.6000000000250790e+02  1.6200000000248053e+02  1.6400000000263435e+02  1.6600000000276057e+02  1.6800000000285129e+02  1.7000000000272235e+02  1.7200000000258751e+02  1.7400000000250728e+02  1.7600000000264751e+02  1.7800000000282208e+02  1.8000000000295591e+02  1.8200000000290734e+02  1.8400000000283762e+02  1.8600000000279749e+02  1.8800000000289810e+02  1.9000000000293974e+02  1.9200000000296822e+02  1.9400000000291075e+02  1.9600000000287881e+02  1.9800000000298803e+02  2.0000000000316251e+02  5.6810499772345924e-16  2.0000000000030393e+00  3.9999999998690892e+00  6.0000000001084324e+00  8.0000000001030767e+00  1.0000000000241039e+01  1.2000000000283348e+01  1.4000000000381766e+01  1.6000000000309846e+01  1.8000000000321918e+01  2.0000000000245368e+01  2.2000000000273552e+01  2.4000000000274817e+01  2.6000000000389942e+01  2.8000000000462109e+01  3.0000000000582361e+01  3.2000000000616993e+01  3.4000000000651937e+01  3.6000000000604516e+01  3.8000000000581849e+01  4.0000000000540162e+01  4.2000000000571490e+01  4.4000000000618932e+01  4.6000000000727745e+01  4.8000000000818211e+01  5.0000000000906446e+01  5.2000000000931024e+01  5.4000000000927990e+01  5.6000000000883198e+01  5.8000000000853426e+01  6.0000000000843144e+01  6.2000000000885009e+01  6.4000000000968029e+01  6.6000000001068230e+01  6.8000000001162974e+01  7.0000000001215909e+01  7.2000000001229154e+01  7.4000000001193939e+01  7.6000000001163627e+01  7.8000000001130914e+01  8.0000000001158995e+01  8.2000000001214161e+01  8.4000000001323215e+01  8.6000000001410243e+01  8.8000000001500453e+01  9.0000000001515261e+01  9.2000000001517947e+01  9.4000000001462766e+01  9.6000000001446992e+01  9.8000000001424738e+01  1.0000000000148711e+02  1.0200000000154847e+02  1.0400000000167738e+02  1.0600000000174109e+02  1.0800000000181902e+02  1.1000000000179881e+02  1.1200000000179605e+02  1.1400000000172628e+02  1.1600000000173848e+02  1.1800000000172746e+02  1.2000000000182946e+02  1.2200000000189416e+02  1.2400000000203019e+02  1.2600000000206651e+02  1.2800000000213075e+02  1.3000000000207731e+02  1.3200000000207501e+02  1.3400000000200359e+02  1.3600000000204699e+02  1.3800000000205230e+02  1.4000000000217784e+02  1.4200000000224179e+02  1.4400000000236975e+02  1.4600000000238055e+02  1.4800000000241954e+02  1.5000000000235113e+02  1.5200000000234743e+02  1.5400000000229076e+02  1.5600000000235497e+02  1.5800000000238671e+02  1.6000000000252516e+02  1.6200000000258717e+02  1.6400000000269628e+02  1.6600000000268230e+02  1.6800000000270131e+02  1.7000000000262176e+02  1.7200000000262312e+02  1.7400000000258942e+02  1.7600000000267542e+02  1.7800000000272863e+02  1.8000000000286542e+02  1.8200000000292331e+02  1.8400000000300105e+02  1.8600000000296356e+02  1.8800000000297084e+02  1.9000000000287102e+02  1.9200000000284533e+02  1.9400000000286559e+02  1.9600000000301040e+02  1.9800000000307082e+02  2.0000000000312389e+02  -3.5489268768376425e-16  2.0000000001147535e+00  4.0000000000027169e+00  5.9999999999731113e+00  7.9999999999461844e+00  1.0000000000155337e+01  1.2000000000317320e+01  1.4000000000448006e+01  1.6000000000310948e+01  1.8000000000221650e+01  2.0000000000143171e+01  2.2000000000308312e+01  2.4000000000420638e+01  2.6000000000546329e+01  2.8000000000473833e+01  3.0000000000494779e+01  3.2000000000521538e+01  3.4000000000699337e+01  3.6000000000729507e+01  3.8000000000690157e+01  4.0000000000498716e+01  4.2000000000458478e+01  4.4000000000527400e+01  4.6000000000766420e+01  4.8000000000885649e+01  5.0000000000914348e+01  5.2000000000791530e+01  5.4000000000780609e+01  5.6000000000821586e+01  5.8000000000968697e+01  6.0000000000979014e+01  6.2000000000955659e+01  6.4000000000886459e+01  6.6000000000997659e+01  6.8000000001167180e+01  7.0000000001356938e+01  7.2000000001333888e+01  7.4000000001209912e+01  7.6000000001054531e+01  7.8000000001072507e+01  8.0000000001194266e+01  8.2000000001341832e+01  8.4000000001361400e+01  8.6000000001319449e+01  8.8000000001305779e+01  9.0000000001408253e+01  9.2000000001537302e+01  9.4000000001581540e+01  9.6000000001486271e+01  9.8000000001374104e+01  1.0000000000138250e+02  1.0200000000156146e+02  1.0400000000178505e+02  1.0600000000188889e+02  1.0800000000183506e+02  1.1000000000172395e+02  1.1200000000170482e+02  1.1400000000177684e+02  1.1600000000187467e+02  1.1800000000185263e+02  1.2000000000179331e+02  1.2200000000175447e+02  1.2400000000189142e+02  1.2600000000205868e+02  1.2800000000219205e+02  1.3000000000210972e+02  1.3200000000198506e+02  1.3400000000188004e+02  1.3600000000199736e+02  1.3800000000215525e+02  1.4000000000232293e+02  1.4200000000230321e+02  1.4400000000229105e+02  1.4600000000228098e+02  1.4800000000242068e+02  1.5000000000249037e+02  1.5200000000249889e+02  1.5400000000233217e+02  1.5600000000226504e+02  1.5800000000228661e+02  1.6000000000252044e+02  1.6200000000266277e+02  1.6400000000273315e+02  1.6600000000258879e+02  1.6800000000253075e+02  1.7000000000251083e+02  1.7200000000266931e+02  1.7400000000272090e+02  1.7600000000275386e+02  1.7800000000267482e+02  1.8000000000275151e+02  1.8200000000288361e+02  1.8400000000309944e+02  1.8600000000311505e+02  1.8800000000303592e+02  1.9000000000283589e+02  1.9200000000278837e+02  1.9400000000286587e+02  1.9600000000309308e+02  1.9800000000317280e+02  2.0000000000312082e+02  1.7593959602214838e-17  2.0000000001004845e+00  4.0000000001525864e+00  5.9999999999562705e+00  7.9999999998800355e+00  1.0000000000084844e+01  1.2000000000258936e+01  1.4000000000371932e+01  1.6000000000286601e+01  1.8000000000205915e+01  2.0000000000157634e+01  2.2000000000357129e+01  2.4000000000510603e+01  2.6000000000624674e+01  2.8000000000511200e+01  3.0000000000470880e+01  3.2000000000472561e+01  3.4000000000666596e+01  3.6000000000744940e+01  3.8000000000738069e+01  4.0000000000545612e+01  4.2000000000478444e+01  4.4000000000519009e+01  4.6000000000745054e+01  4.8000000000844402e+01  5.0000000000855266e+01  5.2000000000703601e+01  5.4000000000706414e+01  5.6000000000786905e+01  5.8000000001010662e+01  6.0000000001060791e+01  6.2000000001044093e+01  6.4000000000922256e+01  6.6000000000994362e+01  6.8000000001141089e+01  7.0000000001350358e+01  7.2000000001340510e+01  7.4000000001230703e+01  7.6000000001068315e+01  7.8000000001099153e+01  8.0000000001231300e+01  8.2000000001383228e+01  8.4000000001359865e+01  8.6000000001266187e+01  8.8000000001194365e+01  9.0000000001306745e+01  9.2000000001475186e+01  9.4000000001595382e+01  9.6000000001526743e+01  9.8000000001430905e+01  1.0000000000141218e+02  1.0200000000159268e+02  1.0400000000179917e+02  1.0600000000190752e+02  1.0800000000182632e+02  1.1000000000170662e+02  1.1200000000169062e+02  1.1400000000181223e+02  1.1600000000194478e+02  1.1800000000193542e+02  1.2000000000182190e+02  1.2200000000172224e+02  1.2400000000180073e+02  1.2600000000197150e+02  1.2800000000212071e+02  1.3000000000207731e+02  1.3200000000196323e+02  1.3400000000188544e+02  1.3600000000201740e+02  1.3800000000221118e+02  1.4000000000237745e+02  1.4200000000233553e+02  1.4400000000226487e+02  1.4600000000223866e+02  1.4800000000239521e+02  1.5000000000252470e+02  1.5200000000257148e+02  1.5400000000241673e+02  1.5600000000230813e+02  1.5800000000229159e+02  1.6000000000248957e+02  1.6200000000262230e+02  1.6400000000266607e+02  1.6600000000251305e+02  1.6800000000244560e+02  1.7000000000246797e+02  1.7200000000267897e+02  1.7400000000278973e+02  1.7600000000281395e+02  1.7800000000270623e+02  1.8000000000272445e+02  1.8200000000284669e+02  1.8400000000307315e+02  1.8600000000314293e+02  1.8800000000307492e+02  1.9000000000289111e+02  1.9200000000286343e+02  1.9400000000293630e+02  1.9600000000309240e+02  1.9800000000316982e+02  2.0000000000311587e+02  -3.0315745776124024e-18  2.0000000000458020e+00  4.0000000001327587e+00  6.0000000000511431e+00  7.9999999999733822e+00  1.0000000000057506e+01  1.2000000000120778e+01  1.4000000000178890e+01  1.6000000000208448e+01  1.8000000000263071e+01  2.0000000000304674e+01  2.2000000000434781e+01  2.4000000000519808e+01  2.6000000000585235e+01  2.8000000000541917e+01  3.0000000000530260e+01  3.2000000000518071e+01  3.4000000000600387e+01  3.6000000000643801e+01  3.8000000000683059e+01  4.0000000000636120e+01  4.2000000000627402e+01